# vtk DataFile Version 3.0.
Written by fe_mesh:write_vtk
ASCII
DATASET UNSTRUCTURED_GRID
POINTS         5  float
  0.000000000000000E+00  0.000000000000000E+00  0.000000000000000E+00
  0.100000000000000E+01  0.000000000000000E+00  0.000000000000000E+00
  0.100000000000000E+01  0.100000000000000E+01  0.000000000000000E+00
  0.000000000000000E+00  0.100000000000000E+01  0.000000000000000E+00
  0.500000000000000E+00  0.500000000000000E+00  0.000000000000000E+00
CELLS        4       16
        3        0        1        4
        3        1        2        4
        3        2        3        4
        3        3        0        4
CELL_TYPES        4
 5
 5
 5
 5
CELL_DATA        4
SCALARS elt_code int 1
LOOKUP_TABLE DEFAULT
        0        0        0        0
POINT_DATA        5
SCALARS node_code int 1
LOOKUP_TABLE DEFAULT
1 3 3 1 0
SCALARS ux float 1
LOOKUP_TABLE DEFAULT
 0.000000E+00
 0.549083E-09
 0.549083E-09
 0.000000E+00
 0.229288E-09
SCALARS uy float 1
LOOKUP_TABLE DEFAULT
 0.000000E+00
 0.162915E-09
-0.162915E-09
 0.000000E+00
 0.585297E-25
