# vtk DataFile Version 3.0.
Written by fe_mesh:write_vtk
ASCII
DATASET UNSTRUCTURED_GRID
POINTS       286  float
  0.435673141479000E+01 -0.104498001099000E+03  0.000000000000000E+00
  0.741579818726000E+01 -0.103027244568000E+03  0.000000000000000E+00
  0.464091825485000E+01 -0.101574478149000E+03  0.000000000000000E+00
  0.720812225342000E+01 -0.347559776306000E+02  0.000000000000000E+00
  0.715411567688000E+01 -0.319625396729000E+02  0.000000000000000E+00
  0.417395639420000E+01 -0.338894233704000E+02  0.000000000000000E+00
  0.518483495712000E+01  0.894481372833000E+01  0.000000000000000E+00
  0.226546812057000E+01  0.867723178864000E+01  0.000000000000000E+00
  0.476019811630000E+01  0.646399736404000E+01  0.000000000000000E+00
  0.584810543060000E+01  0.218408184052000E+02  0.000000000000000E+00
  0.585076856613000E+01  0.245452098846000E+02  0.000000000000000E+00
  0.278119730949000E+01  0.234579524994000E+02  0.000000000000000E+00
  0.330437707901000E+01 -0.107393638611000E+03  0.000000000000000E+00
  0.563945674896000E+01 -0.107411354065000E+03  0.000000000000000E+00
  0.574640321732000E+01 -0.110601325989000E+03  0.000000000000000E+00
  0.608218717575000E+01 -0.113767463684000E+03  0.000000000000000E+00
  0.877574825287000E+01 -0.110918403625000E+03  0.000000000000000E+00
 -0.166433906555000E+01 -0.141438293457000E+03  0.000000000000000E+00
 -0.500000000000000E+01 -0.145000000000000E+03  0.000000000000000E+00
 -0.166666662693000E+01 -0.145000000000000E+03  0.000000000000000E+00
 -0.500000000000000E+01 -0.141428176880000E+03  0.000000000000000E+00
 -0.500000000000000E+01 -0.130712692261000E+03  0.000000000000000E+00
 -0.158375728130000E+01 -0.127243217468000E+03  0.000000000000000E+00
 -0.500000000000000E+01 -0.127140876770000E+03  0.000000000000000E+00
 -0.162996339798000E+01 -0.130774108887000E+03  0.000000000000000E+00
  0.177964138985000E+01 -0.127343429565000E+03  0.000000000000000E+00
  0.173003613949000E+01 -0.130838272095000E+03  0.000000000000000E+00
 -0.126896607876000E+01 -0.120372718811000E+03  0.000000000000000E+00
 -0.500000000000000E+01 -0.123569046021000E+03  0.000000000000000E+00
 -0.149069154263000E+01 -0.123748619080000E+03  0.000000000000000E+00
 -0.500000000000000E+01 -0.119997222900000E+03  0.000000000000000E+00
 -0.770653486252000E+00 -0.117039459229000E+03  0.000000000000000E+00
 -0.303476357460000E+01 -0.113221015930000E+03  0.000000000000000E+00
 -0.395760178566000E+01 -0.116626457214000E+03  0.000000000000000E+00
 -0.211583539844000E+00 -0.113638954163000E+03  0.000000000000000E+00
 -0.155221188068000E+01 -0.106323104858000E+03  0.000000000000000E+00
  0.151559615135000E+01 -0.103575836182000E+03  0.000000000000000E+00
 -0.994344055653000E+00 -0.102839218140000E+03  0.000000000000000E+00
  0.862034022808000E+00 -0.106867614746000E+03  0.000000000000000E+00
  0.539748716354000E+01 -0.992776489258000E+02  0.000000000000000E+00
  0.767292928696000E+01 -0.993056793213000E+02  0.000000000000000E+00
  0.336697745323000E+01 -0.889016036987000E+02  0.000000000000000E+00
  0.663958597183000E+01 -0.854279479980000E+02  0.000000000000000E+00
  0.333046150208000E+01 -0.854373321533000E+02  0.000000000000000E+00
  0.668535995483000E+01 -0.888713378906000E+02  0.000000000000000E+00
  0.662995100021000E+01 -0.820277633667000E+02  0.000000000000000E+00
  0.100000000000000E+02 -0.853950119019000E+02  0.000000000000000E+00
  0.100000000000000E+02 -0.820177841187000E+02  0.000000000000000E+00
  0.662681579590000E+01 -0.718899307251000E+02  0.000000000000000E+00
  0.100000000000000E+02 -0.685088958740000E+02  0.000000000000000E+00
  0.661483240128000E+01 -0.685125503540000E+02  0.000000000000000E+00
  0.100000000000000E+02 -0.718861160278000E+02  0.000000000000000E+00
  0.327802085876000E+01 -0.718927307129000E+02  0.000000000000000E+00
  0.852651316793000E-14 -0.752633438110000E+02  0.000000000000000E+00
  0.328483700752000E+01 -0.752701263428000E+02  0.000000000000000E+00
  0.710542735760000E-14 -0.718861160278000E+02  0.000000000000000E+00
  0.100000000000000E+02 -0.752633438110000E+02  0.000000000000000E+00
  0.662519407272000E+01 -0.752668991089000E+02  0.000000000000000E+00
  0.661952877045000E+01 -0.617556076050000E+02  0.000000000000000E+00
  0.329899477959000E+01 -0.583767547607000E+02  0.000000000000000E+00
  0.329203081131000E+01 -0.617542152405000E+02  0.000000000000000E+00
  0.663502931595000E+01 -0.583785972595000E+02  0.000000000000000E+00
  0.142108549270000E-14 -0.583772239685000E+02  0.000000000000000E+00
  0.284217098539000E-14 -0.617544479370000E+02  0.000000000000000E+00
  0.331121039391000E+01 -0.516214294434000E+02  0.000000000000000E+00
  0.284217098539000E-14 -0.482455520630000E+02  0.000000000000000E+00
  0.142108549270000E-14 -0.516227760315000E+02  0.000000000000000E+00
  0.333438587189000E+01 -0.482404518127000E+02  0.000000000000000E+00
  0.330956864357000E+01 -0.549989852905000E+02  0.000000000000000E+00
  0.664635086060000E+01 -0.550008277893000E+02  0.000000000000000E+00
  0.662597370148000E+01 -0.651345520020000E+02  0.000000000000000E+00
  0.100000000000000E+02 -0.617544479370000E+02  0.000000000000000E+00
  0.100000000000000E+02 -0.651316680908000E+02  0.000000000000000E+00
  0.100000000000000E+02 -0.583772239685000E+02  0.000000000000000E+00
  0.167261767387000E+01 -0.141449020386000E+03  0.000000000000000E+00
  0.500000000000000E+01 -0.145000000000000E+03  0.000000000000000E+00
  0.500655841827000E+01 -0.141453491211000E+03  0.000000000000000E+00
  0.166666662693000E+01 -0.145000000000000E+03  0.000000000000000E+00
  0.150000000000000E+02 -0.141428176880000E+03  0.000000000000000E+00
  0.116759023666000E+02 -0.137883453369000E+03  0.000000000000000E+00
  0.116738929749000E+02 -0.141440734863000E+03  0.000000000000000E+00
  0.150000000000000E+02 -0.137856353760000E+03  0.000000000000000E+00
  0.116956968307000E+02 -0.130791152954000E+03  0.000000000000000E+00
  0.150000000000000E+02 -0.134284530640000E+03  0.000000000000000E+00
  0.150000000000000E+02 -0.130712692261000E+03  0.000000000000000E+00
  0.116868047714000E+02 -0.134333038330000E+03  0.000000000000000E+00
  0.837292003632000E+01 -0.130845977783000E+03  0.000000000000000E+00
  0.836204433441000E+01 -0.134366317749000E+03  0.000000000000000E+00
  0.117029542923000E+02 -0.123818466187000E+03  0.000000000000000E+00
  0.150000000000000E+02 -0.127140876770000E+03  0.000000000000000E+00
  0.150000000000000E+02 -0.123569046021000E+03  0.000000000000000E+00
  0.117148332596000E+02 -0.127276725769000E+03  0.000000000000000E+00
  0.103715143204000E+02 -0.114072296143000E+03  0.000000000000000E+00
  0.139576015472000E+02 -0.116626457214000E+03  0.000000000000000E+00
  0.130347633362000E+02 -0.113221015930000E+03  0.000000000000000E+00
  0.111499223709000E+02 -0.117292816162000E+03  0.000000000000000E+00
  0.836838340759000E+01 -0.106905021667000E+03  0.000000000000000E+00
  0.122326345444000E+02 -0.109785140991000E+03  0.000000000000000E+00
  0.115522117615000E+02 -0.106323104858000E+03  0.000000000000000E+00
  0.105597248077000E+02 -0.993378219604000E+02  0.000000000000000E+00
  0.109943437576000E+02 -0.102839218140000E+03  0.000000000000000E+00
  0.994759813123000E-14 -0.786405639648000E+02  0.000000000000000E+00
  0.329556083679000E+01 -0.786502380371000E+02  0.000000000000000E+00
  0.709655761719000E+01 -0.959859924316000E+02  0.000000000000000E+00
  0.100622434616000E+02 -0.922999496460000E+02  0.000000000000000E+00
  0.678162908554000E+01 -0.924433441162000E+02  0.000000000000000E+00
  0.102488956451000E+02 -0.958232803345000E+02  0.000000000000000E+00
  0.280694961548000E+01 -0.113844833374000E+03  0.000000000000000E+00
  0.301663661003000E+01 -0.110594200134000E+03  0.000000000000000E+00
  0.841685390472000E+01 -0.123987731934000E+03  0.000000000000000E+00
  0.526051092148000E+01 -0.120726699829000E+03  0.000000000000000E+00
  0.516145324707000E+01 -0.124013877869000E+03  0.000000000000000E+00
  0.838527202606000E+01 -0.120743133545000E+03  0.000000000000000E+00
  0.505873012543000E+01 -0.130860458374000E+03  0.000000000000000E+00
  0.509774255753000E+01 -0.127394866943000E+03  0.000000000000000E+00
  0.834422206879000E+01 -0.137904724121000E+03  0.000000000000000E+00
  0.503461599350000E+01 -0.134375930786000E+03  0.000000000000000E+00
  0.501765823364000E+01 -0.137907394409000E+03  0.000000000000000E+00
 -0.165924084187000E+01 -0.137878402710000E+03  0.000000000000000E+00
 -0.500000000000000E+01 -0.137856353760000E+03  0.000000000000000E+00
  0.169834184647000E+01 -0.134355834961000E+03  0.000000000000000E+00
  0.168494176865000E+01 -0.137901062012000E+03  0.000000000000000E+00
  0.664762592316000E+01 -0.516234474182000E+02  0.000000000000000E+00
  0.665330505371000E+01 -0.482463989258000E+02  0.000000000000000E+00
  0.100000000000000E+02 -0.482455520630000E+02  0.000000000000000E+00
  0.668241453171000E+01 -0.448697242737000E+02  0.000000000000000E+00
  0.100000000000000E+02 -0.448683280945000E+02  0.000000000000000E+00
  0.336706233025000E+01 -0.448526039124000E+02  0.000000000000000E+00
  0.568434197078000E-14 -0.414911079407000E+02  0.000000000000000E+00
  0.426325658397000E-14 -0.448683280945000E+02  0.000000000000000E+00
  0.345687603951000E+01 -0.414364662170000E+02  0.000000000000000E+00
  0.674224472046000E+01 -0.414856834412000E+02  0.000000000000000E+00
  0.100000000000000E+02 -0.313594360352000E+02  0.000000000000000E+00
  0.664147424698000E+01 -0.287654037476000E+02  0.000000000000000E+00
  0.100000000000000E+02 -0.279822120667000E+02  0.000000000000000E+00
  0.366195058823000E+01 -0.379057197571000E+02  0.000000000000000E+00
  0.686050319672000E+01 -0.380844268799000E+02  0.000000000000000E+00
  0.190738463402000E+01 -0.246608333588000E+02  0.000000000000000E+00
  0.142108547152000E-13 -0.212277660370000E+02  0.000000000000000E+00
  0.127897689049000E-13 -0.246049900055000E+02  0.000000000000000E+00
  0.307120919228000E+01 -0.224491539001000E+02  0.000000000000000E+00
[...]
CELL_DATA      454
SCALARS elt_code int 1
LOOKUP_TABLE DEFAULT
        1        1        1        1        1        1        1        1
        1        1        1        1        1        1        1        1
        1        1        1        1        1        1        1        1
        1        1        1        1        1        1        1        1
        1        1        1        1        1        1        1        1
        1        1        1        1        1        1        1        1
        1        1        1        1        1        1        1        1
        1        1        1        1        1        1        1        1
        1        1        1        1        1        1        1        1
        1        1        1        1        1        1        1        1
        1        1        1        1        1        1        1        1
        1        1        1        1        1        1        1        1
        1        1        1        1        1        1        1        1
        1        1        1        1        1        1        1        1
        1        1        1        1        1        1        1        1
        1        1        1        1        1        1        1        1
        1        1        1        1        1        1        1        1
        1        1        1        1        1        1        1        1
        1        1        1        1        1        1        1        1
        1        1        1        1        1        1        1        1
        1        1        1        1        1        1        1        1
        1        1        1        1        1        1        1        1
        1        1        1        1        1        1        1        1
        1        1        1        1        1        1        1        1
        1        1        1        1        1        1        1        1
        1        1        1        1        1        1        1        1
        1        1        1        1        1        1        1        1
        1        1        1        1        1        1        1        1
        1        1        1        1        1        1        1        1
        1        1        1        1        1        1        1        1
        1        1        1        1        1        1        1        1
        1        1        1        1        1        1        1        1
        1        1        1        1        1        1        1        1
        1        1        1        1        1        1        1        1
        1        1        1        1        1        1        1        1
        1        1        1        1        1        1        1        1
        1        1        1        1        1        1        1        1
        1        1        1        1        1        1        1        1
        1        1        1        1        1        1        1        1
        1        1        1        1        1        1        1        1
        1        1        1        1        1        1        1        1
        1        1        1        1        1        1        1        1
        1        1        1        1        1        1        1        1
        1        1        1        1        1        1        1        1
        1        1        1        1        1        1        1        1
        1        1        1        1        1        1        1        1
        1        1        1        1        1        1        1        1
        1        1        1        1        1        1        1        1
        1        1        1        1        1        1        1        1
        1        1        1        1        1        1        1        1
        1        1        1        1        1        1        1        1
        1        1        1        1        1        1        1        1
        1        1        1        1        1        1        1        1
        1        1        1        1        1        1        1        1
        1        1        1        1        1        1        1        1
        1        1        1        1        1        1        1        1
        1        1        1        1        1        1
POINT_DATA      286
SCALARS node_code int 1
LOOKUP_TABLE DEFAULT
0 0 0 0 0 0 0 0
0 0 0 0 0 0 0 0
0 0 1 1 0 0 0 0
0 0 0 0 0 0 0 0
0 0 0 0 0 0 0 0
0 0 0 0 0 0 0 0
0 0 0 0 0 0 0 0
0 0 0 0 0 0 0 0
0 0 0 0 0 0 0 0
0 0 0 1 0 1 0 0
0 0 0 0 0 0 0 0
0 0 0 0 0 0 0 0
0 0 0 0 0 0 0 0
0 0 0 0 0 0 0 0
0 0 0 0 0 0 0 0
0 0 0 0 0 0 0 0
0 0 0 0 0 0 0 0
0 0 0 0 0 0 0 0
0 0 0 0 0 0 0 0
0 0 0 0 0 0 0 0
0 0 0 0 0 0 0 0
0 0 0 0 0 0 0 0
0 0 0 0 0 0 0 0
0 0 3 3 0 0 0 0
0 0 0 0 0 0 0 0
0 0 0 0 0 0 0 0
0 0 0 0 0 0 0 0
0 0 0 0 0 0 0 0
0 0 0 0 0 0 0 0
0 0 0 0 0 0 0 0
0 0 0 0 0 0 0 0
0 0 1 1 1 0 0 0
0 0 0 0 3 3 3 3
3 0 0 0 0 0 0 0
0 0 0 0 0 0 0 0
0 0 0 0 0 0
